<?xml version="1.0"?>
<VTKFile type="UnstructuredGrid"  version="0.1"  >
<UnstructuredGrid>
<Piece  NumberOfPoints="92" NumberOfCells="104">
<Points>
<DataArray  type="Float64"  NumberOfComponents="3"  format="ascii">170 0 213  95 336 213  107 445 213  57 520 213  145 520 213  137 330 153  134 369 153  86 458 153  63 520 153  188 270 149  220 81 213  200 0 213  183 520 131  236 443 131  241 360 139  0 368 95  35 362 95  63 358 105  181 394 105  251 455 121  272 435 135  284 410 141  313 395 151  320 186 171  110 334 165  100 339 125  86 297 109  35 263 85  47 224 81  79 237 77  102 220 77  95 232 69  148 266 75  205 317 75  228 333 75  152 384 81  103 403 89  297 346 78  322 355 75  348 328 75  348 358 75  353 254 61  372 234 57  393 254 61  391 311 69  550 260 60  399 361 75  378 368 75  166 422 81  325 234 55  315 187 47  354 181 47  353 161 37  403 131 37  406 89 29  295 58 25  312 0 25  422 153 33  446 174 25  468 134 25  498 65 25  550 18 25  550 47 25  521 90 25  450 0 25  550 116 25  502 122 25  400 158 25  352 139 25  319 132 25  257 138 31  119 46 81  375 126 25  299 246 69  196 242 71  90 136 83  81 81 83  199 201 49  95 153 71  136 86 89  486 520 175  511 397 175  451 180 161  550 47 150  550 513 105  501 397 89  550 409 89  386 272 93  363 268 97  372 296 109  400 283 115  423 255 121  </DataArray>
</Points>
<Cells>
<DataArray  type="UInt32"  Name="connectivity"  format="ascii">0 1  1 2  1 24  2 3  2 4  5 6  5 9  5 24  6 7  7 8  9 10  9 14  10 11  10 23  12 13  13 14  15 16  16 17  16 36  17 18  18 19  19 20  20 21  21 22  22 23  24 25  25 26  26 27  27 28  28 29  28 30  29 31  30 31  31 32  32 33  32 74  33 34  33 35  34 37  35 36  36 48  37 38  38 39  38 40  38 48  39 40  39 41  39 44  40 47  41 42  41 49  42 43  43 44  44 45  44 46  46 47  49 50  49 73  50 51  50 77  51 57  51 70  51 52  52 53  52 68  53 54  54 55  55 56  57 58  58 59  58 67  59 60  59 66  59 67  60 61  60 64  60 63  62 63  63 65  63 66  67 68  67 72  68 69  68 72  69 70  70 71  71 76  71 79  73 74  74 75  75 76  77 78  78 79  80 81  81 82  82 83  82 91  84 85  85 86  85 87  87 88  88 89  89 90  90 91  </DataArray>
<DataArray  type="UInt32"  Name="offsets"  format="ascii">2 4 6 8 10 12 14 16 18 20 22 24 26 28 30 32 34 36 38 40 42 44 46 48 50 52 54 56 58 60 62 64 66 68 70 72 74 76 78 80 82 84 86 88 90 92 94 96 98 100 102 104 106 108 110 112 114 116 118 120 122 124 126 128 130 132 134 136 138 140 142 144 146 148 150 152 154 156 158 160 162 164 166 168 170 172 174 176 178 180 182 184 186 188 190 192 194 196 198 200 202 204 206 208 </DataArray>
<DataArray  type="UInt8"  Name="types"  format="ascii">3 3 3 3 3 3 3 3 3 3 3 3 3 3 3 3 3 3 3 3 3 3 3 3 3 3 3 3 3 3 3 3 3 3 3 3 3 3 3 3 3 3 3 3 3 3 3 3 3 3 3 3 3 3 3 3 3 3 3 3 3 3 3 3 3 3 3 3 3 3 3 3 3 3 3 3 3 3 3 3 3 3 3 3 3 3 3 3 3 3 3 3 3 3 3 3 3 3 3 3 3 3 3 3 </DataArray>
</Cells>
<PointData  Scalars="f_7153"> 
<DataArray  type="Float64"  Name="f_7153"  format="ascii">0.0000000000000000e+00  0.0000000000000000e+00  0.0000000000000000e+00  0.0000000000000000e+00  0.0000000000000000e+00  0.0000000000000000e+00  0.0000000000000000e+00  0.0000000000000000e+00  0.0000000000000000e+00  0.0000000000000000e+00  0.0000000000000000e+00  0.0000000000000000e+00  0.0000000000000000e+00  0.0000000000000000e+00  0.0000000000000000e+00  0.0000000000000000e+00  0.0000000000000000e+00  0.0000000000000000e+00  0.0000000000000000e+00  0.0000000000000000e+00  0.0000000000000000e+00  0.0000000000000000e+00  0.0000000000000000e+00  0.0000000000000000e+00  0.0000000000000000e+00  0.0000000000000000e+00  0.0000000000000000e+00  0.0000000000000000e+00  0.0000000000000000e+00  0.0000000000000000e+00  0.0000000000000000e+00  0.0000000000000000e+00  0.0000000000000000e+00  0.0000000000000000e+00  0.0000000000000000e+00  0.0000000000000000e+00  0.0000000000000000e+00  0.0000000000000000e+00  0.0000000000000000e+00  0.0000000000000000e+00  0.0000000000000000e+00  0.0000000000000000e+00  0.0000000000000000e+00  0.0000000000000000e+00  0.0000000000000000e+00  0.0000000000000000e+00  0.0000000000000000e+00  0.0000000000000000e+00  0.0000000000000000e+00  0.0000000000000000e+00  0.0000000000000000e+00  0.0000000000000000e+00  0.0000000000000000e+00  0.0000000000000000e+00  0.0000000000000000e+00  0.0000000000000000e+00  0.0000000000000000e+00  0.0000000000000000e+00  0.0000000000000000e+00  0.0000000000000000e+00  0.0000000000000000e+00  0.0000000000000000e+00  0.0000000000000000e+00  0.0000000000000000e+00  0.0000000000000000e+00  0.0000000000000000e+00  0.0000000000000000e+00  0.0000000000000000e+00  0.0000000000000000e+00  0.0000000000000000e+00  0.0000000000000000e+00  0.0000000000000000e+00  0.0000000000000000e+00  0.0000000000000000e+00  0.0000000000000000e+00  0.0000000000000000e+00  0.0000000000000000e+00  0.0000000000000000e+00  0.0000000000000000e+00  0.0000000000000000e+00  0.0000000000000000e+00  0.0000000000000000e+00  0.0000000000000000e+00  0.0000000000000000e+00  0.0000000000000000e+00  0.0000000000000000e+00  0.0000000000000000e+00  0.0000000000000000e+00  0.0000000000000000e+00  0.0000000000000000e+00  0.0000000000000000e+00  0.0000000000000000e+00  </DataArray> 
</PointData> 
</Piece>
</UnstructuredGrid>
</VTKFile>