<?xml version="1.0"?>
<VTKFile type="UnstructuredGrid"  version="0.1"  >
<UnstructuredGrid>
<Piece  NumberOfPoints="4" NumberOfCells="3">
<Points>
<DataArray  type="Float64"  NumberOfComponents="3"  format="ascii">0 0 0  0 0.5 0  -0.2 0.8 0  0.2 0.8 0  </DataArray>
</Points>
<Cells>
<DataArray  type="UInt32"  Name="connectivity"  format="ascii">0 1  1 2  1 3  </DataArray>
<DataArray  type="UInt32"  Name="offsets"  format="ascii">2 4 6 </DataArray>
<DataArray  type="UInt8"  Name="types"  format="ascii">3 3 3 </DataArray>
</Cells>
<PointData  Vectors="f_6508"> 
<DataArray  type="Float64"  Name="f_6508"  NumberOfComponents="3" format="ascii">0.0000000000000000e+00 -1.0000000000000000e+00 0.0000000000000000e+00  -5.5470019622522915e-01 -8.3205029433784383e-01 0.0000000000000000e+00  5.5470019622522915e-01 -8.3205029433784383e-01 0.0000000000000000e+00  -5.5470019622522915e-01 -8.3205029433784383e-01 0.0000000000000000e+00  </DataArray> 
</PointData> 
</Piece>
</UnstructuredGrid>
</VTKFile>